<?xml version="1.0" encoding="UTF-8"?>

<!-- generated on 2026-03-15T22:41:46.274978+05:30 by Eclipse SUMO GUI 1.26.0
<sumoConfiguration xmlns:xsi="http://www.w3.org/2001/XMLSchema-instance" xsi:noNamespaceSchemaLocation="http://sumo.dlr.de/xsd/sumoConfiguration.xsd">

    <input>
        <net-file value="simulation/joined_buslanes.net.xml"/>
        <route-files value="simulation/joined.rou.xml,simulation/ joined_busses.rou.xml"/>
        <additional-files value="simulation/joined_bus_stops.add.xml,simulation/ joined_detectors.add.xml,simulation/ joined_vtypes.add.xml,simulation/ joined_tls.add.xml"/>
    </input>

    <output>
        <tripinfo-output value="simulation/tripinfos.xml"/>
        <save-state.prefix value="simulation/state"/>
    </output>

    <report>
        <log value="simulation/sumo_log.txt"/>
        <no-step-log value="true"/>
    </report>

    <emissions>
        <phemlight-path value="simulation/./PHEMlight/"/>
    </emissions>

    <traci_server>
        <remote-port value="65413"/>
    </traci_server>

    <gui_only>
        <quit-on-end value="true"/>
        <start value="true"/>
    </gui_only>

</sumoConfiguration>
-->

<tripinfos xmlns:xsi="http://www.w3.org/2001/XMLSchema-instance" xsi:noNamespaceSchemaLocation="http://sumo.dlr.de/xsd/tripinfo_file.xsd">
    <tripinfo id="Pertini_20_1" depart="2.00" departLane="b63[0]_2" departPos="0.00" departSpeed="0.00" departDelay="0.00" arrival="75.00" arrivalLane="b4[1][1][1]_1" arrivalPos="172.70" arrivalSpeed="13.53" duration="73.00" routeLength="889.67" waitingTime="0.00" waitingCount="0" stopTime="0.00" timeLoss="10.02" rerouteNo="0" devices="tripinfo_Pertini_20_1" vType="passenger2b" speedFactor="1.02" vaporized=""/>
    <tripinfo id="Pertini_20_0" depart="0.00" departLane="b63[0]_1" departPos="0.00" departSpeed="0.00" departDelay="0.00" arrival="76.00" arrivalLane="b4[1][1][1]_0" arrivalPos="172.70" arrivalSpeed="14.32" duration="76.00" routeLength="889.67" waitingTime="3.00" waitingCount="1" stopTime="0.00" timeLoss="16.43" rerouteNo="0" devices="tripinfo_Pertini_20_0" vType="passenger2b" speedFactor="1.09" vaporized=""/>
    <tripinfo id="Prati_Capraia_10_0" depart="0.00" departLane="b3[0]_0" departPos="0.00" departSpeed="0.00" departDelay="0.00" arrival="80.00" arrivalLane="b10_0" arrivalPos="226.64" arrivalSpeed="12.39" duration="80.00" routeLength="410.85" waitingTime="39.00" waitingCount="1" stopTime="0.00" timeLoss="47.85" rerouteNo="0" devices="tripinfo_Prati_Capraia_10_0" vType="passenger2b" speedFactor="0.92" vaporized=""/>
    <tripinfo id="Pertini_20_2" depart="4.00" departLane="b63[0]_2" departPos="0.00" departSpeed="0.00" departDelay="0.00" arrival="80.00" arrivalLane="b4[1][1][1]_0" arrivalPos="172.70" arrivalSpeed="12.84" duration="76.00" routeLength="889.67" waitingTime="0.00" waitingCount="0" stopTime="0.00" timeLoss="7.56" rerouteNo="0" devices="tripinfo_Pertini_20_2" vType="passenger2b" speedFactor="0.95" vaporized=""/>
    <tripinfo id="Pepoli_8_16" depart="27.00" departLane="a210_0" departPos="0.00" departSpeed="0.00" departDelay="0.00" arrival="80.00" arrivalLane="a134b_0" arrivalPos="158.70" arrivalSpeed="15.07" duration="53.00" routeLength="693.78" waitingTime="0.00" waitingCount="0" stopTime="0.00" timeLoss="7.23" rerouteNo="0" devices="tripinfo_Pepoli_8_16" vType="passenger1" speedFactor="1.10" vaporized=""/>
    <tripinfo id="Prati_Capraia_10_1" depart="4.00" departLane="b3[0]_0" departPos="0.00" departSpeed="0.00" departDelay="0.00" arrival="82.00" arrivalLane="b10_0" arrivalPos="226.64" arrivalSpeed="13.26" duration="78.00" routeLength="410.85" waitingTime="37.00" waitingCount="1" stopTime="0.00" timeLoss="46.74" rerouteNo="0" devices="tripinfo_Prati_Capraia_10_1" vType="passenger1" speedFactor="0.96" vaporized=""/>
    <tripinfo id="Prati_Capraia_10_7" depart="34.00" departLane="b3[0]_0" departPos="0.00" departSpeed="0.00" departDelay="0.00" arrival="86.00" arrivalLane="b10_0" arrivalPos="226.64" arrivalSpeed="12.84" duration="52.00" routeLength="410.85" waitingTime="12.00" waitingCount="1" stopTime="0.00" timeLoss="22.76" rerouteNo="0" devices="tripinfo_Prati_Capraia_10_7" vType="passenger1" speedFactor="1.01" vaporized=""/>
    <tripinfo id="Certosa_9_0" depart="0.00" departLane="b22[0]_1" departPos="0.00" departSpeed="0.00" departDelay="0.00" arrival="88.00" arrivalLane="b2[1][1][1]b_2" arrivalPos="323.28" arrivalSpeed="16.18" duration="88.00" routeLength="620.07" waitingTime="38.00" waitingCount="1" stopTime="0.00" timeLoss="50.39" rerouteNo="0" devices="tripinfo_Certosa_9_0" vType="passenger2b" speedFactor="1.20" vaporized=""/>
    <tripinfo id="Pertini_20_9" depart="19.00" departLane="b63[0]_1" departPos="0.00" departSpeed="0.00" departDelay="0.00" arrival="93.00" arrivalLane="b4[1][1][1]_1" arrivalPos="172.70" arrivalSpeed="13.42" duration="74.00" routeLength="889.67" waitingTime="0.00" waitingCount="0" stopTime="0.00" timeLoss="8.17" rerouteNo="0" devices="tripinfo_Pertini_20_9" vType="passenger2b" speedFactor="0.98" vaporized=""/>
    <tripinfo id="Pertini_20_7" depart="15.00" departLane="b63[0]_2" departPos="0.00" departSpeed="0.00" departDelay="0.00" arrival="94.00" arrivalLane="b4[1][1][1]_0" arrivalPos="172.70" arrivalSpeed="11.35" duration="79.00" routeLength="889.67" waitingTime="0.00" waitingCount="0" stopTime="0.00" timeLoss="6.39" rerouteNo="0" devices="tripinfo_Pertini_20_7" vType="passenger3" speedFactor="0.88" vaporized=""/>
    <tripinfo id="Pertini_20_11" depart="23.00" departLane="b63[0]_1" departPos="0.00" departSpeed="0.00" departDelay="0.00" arrival="95.00" arrivalLane="b4[1][1][1]_1" arrivalPos="172.70" arrivalSpeed="13.92" duration="72.00" routeLength="889.67" waitingTime="0.00" waitingCount="0" stopTime="0.00" timeLoss="13.02" rerouteNo="0" devices="tripinfo_Pertini_20_11" vType="passenger2b" speedFactor="1.10" vaporized=""/>
    <tripinfo id="Pertini_20_12" depart="25.00" departLane="b63[0]_2" departPos="0.00" departSpeed="0.00" departDelay="0.00" arrival="96.00" arrivalLane="b4[1][1][1]_0" arrivalPos="172.70" arrivalSpeed="16.11" duration="71.00" routeLength="889.67" waitingTime="0.00" waitingCount="0" stopTime="0.00" timeLoss="18.98" rerouteNo="0" devices="tripinfo_Pertini_20_12" vType="passenger1" speedFactor="1.25" vaporized=""/>
    <tripinfo id="Pertini_20_14" depart="30.00" departLane="b63[0]_1" departPos="0.00" departSpeed="0.00" departDelay="0.00" arrival="98.00" arrivalLane="b4[1][1][1]_1" arrivalPos="172.70" arrivalSpeed="14.03" duration="68.00" routeLength="889.67" waitingTime="0.00" waitingCount="0" stopTime="0.00" timeLoss="7.05" rerouteNo="0" devices="tripinfo_Pertini_20_14" vType="passenger4" speedFactor="1.06" vaporized=""/>
    <tripinfo id="Pertini_20_10" depart="21.00" departLane="b63[0]_2" departPos="0.00" departSpeed="0.00" departDelay="0.00" arrival="99.00" arrivalLane="b4[1][1][1]_0" arrivalPos="172.70" arrivalSpeed="12.07" duration="78.00" routeLength="889.67" waitingTime="0.00" waitingCount="0" stopTime="0.00" timeLoss="10.27" rerouteNo="0" devices="tripinfo_Pertini_20_10" vType="passenger1" speedFactor="0.95" vaporized=""/>
    <tripinfo id="Prati_Capraia_100_5" depart="24.00" departLane="b3[0]_0" departPos="0.00" departSpeed="0.00" departDelay="0.00" arrival="99.00" arrivalLane="b3[1]b_1" arrivalPos="241.22" arrivalSpeed="14.19" duration="75.00" routeLength="624.73" waitingTime="22.00" waitingCount="1" stopTime="0.00" timeLoss="32.89" rerouteNo="0" devices="tripinfo_Prati_Capraia_100_5" vType="passenger2b" speedFactor="1.08" vaporized=""/>
    <tripinfo id="Pepoli_8_21" depart="36.00" departLane="a210_0" departPos="0.00" departSpeed="0.00" departDelay="0.00" arrival="99.00" arrivalLane="a134b_0" arrivalPos="158.70" arrivalSpeed="12.19" duration="63.00" routeLength="693.78" waitingTime="0.00" waitingCount="0" stopTime="0.00" timeLoss="6.45" rerouteNo="0" devices="tripinfo_Pepoli_8_21" vType="passenger2b" speedFactor="0.89" vaporized=""/>
    <tripinfo id="Prati_Capraia_100_3" depart="14.00" departLane="b3[0]_0" departPos="0.00" departSpeed="0.00" departDelay="0.00" arrival="100.00" arrivalLane="b3[1]b_0" arrivalPos="241.22" arrivalSpeed="12.99" duration="86.00" routeLength="624.73" waitingTime="26.00" waitingCount="1" stopTime="0.00" timeLoss="40.12" rerouteNo="0" devices="tripinfo_Prati_Capraia_100_3" vType="passenger5" speedFactor="1.00" vaporized=""/>
    <tripinfo id="Pertini_20_15" depart="32.00" departLane="b63[0]_2" departPos="0.00" departSpeed="0.00" departDelay="0.00" arrival="100.00" arrivalLane="b4[1][1][1]_1" arrivalPos="172.70" arrivalSpeed="14.90" duration="68.00" routeLength="889.67" waitingTime="0.00" waitingCount="0" stopTime="0.00" timeLoss="9.78" rerouteNo="0" devices="tripinfo_Pertini_20_15" vType="passenger1" speedFactor="1.12" vaporized=""/>
    <tripinfo id="Pepoli_8_23" depart="39.00" departLane="a210_0" departPos="0.00" departSpeed="0.00" departDelay="0.00" arrival="101.00" arrivalLane="a134b_0" arrivalPos="158.70" arrivalSpeed="12.19" duration="62.00" routeLength="693.78" waitingTime="0.00" waitingCount="0" stopTime="0.00" timeLoss="6.52" rerouteNo="0" devices="tripinfo_Pepoli_8_23" vType="passenger1" speedFactor="0.91" vaporized=""/>
    <tripinfo id="Pertini_20_16" depart="34.00" departLane="b63[0]_1" departPos="0.00" departSpeed="0.00" departDelay="0.00" arrival="102.00" arrivalLane="b4[1][1][1]_1" arrivalPos="172.70" arrivalSpeed="13.34" duration="68.00" routeLength="889.67" waitingTime="0.00" waitingCount="0" stopTime="0.00" timeLoss="5.87" rerouteNo="0" devices="tripinfo_Pertini_20_16" vType="passenger3" speedFactor="1.04" vaporized=""/>
    <tripinfo id="Gandhi_80_11" depart="17.00" departLane="b1[0]_0" departPos="0.00" departSpeed="0.00" departDelay="0.00" arrival="103.00" arrivalLane="b21_0" arrivalPos="103.70" arrivalSpeed="11.91" duration="86.00" routeLength="515.76" waitingTime="34.00" waitingCount="1" stopTime="0.00" timeLoss="45.25" rerouteNo="0" devices="tripinfo_Gandhi_80_11" vType="passenger1" speedFactor="0.93" vaporized=""/>
    <tripinfo id="Prati_Capraia_100_11" depart="53.00" departLane="b3[0]_0" departPos="0.00" departSpeed="0.00" departDelay="0.00" arrival="103.00" arrivalLane="b3[1]b_1" arrivalPos="241.22" arrivalSpeed="14.94" duration="50.00" routeLength="624.73" waitingTime="0.00" waitingCount="0" stopTime="0.00" timeLoss="9.06" rerouteNo="0" devices="tripinfo_Prati_Capraia_100_11" vType="passenger3" speedFactor="1.10" vaporized=""/>
    <tripinfo id="Prati_Capraia_100_9" depart="43.00" departLane="b3[0]_0" departPos="0.00" departSpeed="0.00" departDelay="0.00" arrival="105.00" arrivalLane="b3[1]b_0" arrivalPos="241.22" arrivalSpeed="12.79" duration="62.00" routeLength="624.73" waitingTime="4.00" waitingCount="1" stopTime="0.00" timeLoss="15.97" rerouteNo="0" devices="tripinfo_Prati_Capraia_100_9" vType="passenger4" speedFactor="0.98" vaporized=""/>
    <tripinfo id="Pertini_20_17" depart="36.00" departLane="b63[0]_2" departPos="0.00" departSpeed="0.00" departDelay="0.00" arrival="109.00" arrivalLane="b4[1][1][1]_0" arrivalPos="172.70" arrivalSpeed="12.57" duration="73.00" routeLength="889.67" waitingTime="0.00" waitingCount="0" stopTime="0.00" timeLoss="6.54" rerouteNo="0" devices="tripinfo_Pertini_20_17" vType="passenger2b" speedFactor="0.97" vaporized=""/>
    <tripinfo id="Pertini_20_18" depart="38.00" departLane="b63[0]_1" departPos="0.00" departSpeed="0.00" departDelay="0.00" arrival="110.00" arrivalLane="b4[1][1][1]_1" arrivalPos="172.70" arrivalSpeed="12.26" duration="72.00" routeLength="889.67" waitingTime="0.00" waitingCount="0" stopTime="0.00" timeLoss="6.45" rerouteNo="0" devices="tripinfo_Pertini_20_18" vType="passenger3" speedFactor="0.98" vaporized=""/>
    <tripinfo id="Prati_Capraia_100_4" depart="19.00" departLane="b3[0]_1" departPos="0.00" departSpeed="0.00" departDelay="0.00" arrival="111.00" arrivalLane="b3[1]b_0" arrivalPos="241.22" arrivalSpeed="12.90" duration="92.00" routeLength="624.73" waitingTime="28.00" waitingCount="2" stopTime="0.00" timeLoss="45.20" rerouteNo="0" devices="tripinfo_Prati_Capraia_100_4" vType="passenger2b" speedFactor="0.98" vaporized=""/>
    <tripinfo id="Pertini_20_22" depart="47.00" departLane="b63[0]_2" departPos="0.00" departSpeed="0.00" departDelay="0.00" arrival="111.00" arrivalLane="b4[1][1][1]_0" arrivalPos="172.70" arrivalSpeed="15.46" duration="64.00" routeLength="889.67" waitingTime="0.00" waitingCount="0" stopTime="0.00" timeLoss="9.06" rerouteNo="0" devices="tripinfo_Pertini_20_22" vType="passenger1" speedFactor="1.18" vaporized=""/>
    <tripinfo id="Prati_Capraia_100_2" depart="9.00" departLane="b3[0]_1" departPos="0.00" departSpeed="0.00" departDelay="0.00" arrival="112.00" arrivalLane="b3[1]b_0" arrivalPos="241.22" arrivalSpeed="14.41" duration="103.00" routeLength="624.73" waitingTime="43.00" waitingCount="2" stopTime="0.00" timeLoss="61.29" rerouteNo="0" devices="tripinfo_Prati_Capraia_100_2" vType="passenger1" speedFactor="1.09" vaporized=""/>
    <tripinfo id="Prati_Capraia_100_12" depart="58.00" departLane="b3[0]_1" departPos="0.00" departSpeed="0.00" departDelay="0.00" arrival="112.00" arrivalLane="b3[1]b_1" arrivalPos="241.22" arrivalSpeed="15.55" duration="54.00" routeLength="624.73" waitingTime="1.00" waitingCount="1" stopTime="0.00" timeLoss="14.20" rerouteNo="0" devices="tripinfo_Prati_Capraia_100_12" vType="passenger4" speedFactor="1.14" vaporized=""/>
    <tripinfo id="Prati_Capraia_100_13" depart="63.00" departLane="b3[0]_0" departPos="0.00" departSpeed="0.00" departDelay="0.00" arrival="114.00" arrivalLane="b3[1]b_0" arrivalPos="241.22" arrivalSpeed="14.78" duration="51.00" routeLength="624.73" waitingTime="0.00" waitingCount="0" stopTime="0.00" timeLoss="8.12" rerouteNo="0" devices="tripinfo_Prati_Capraia_100_13" vType="passenger2a" speedFactor="1.07" vaporized=""/>
    <tripinfo id="Gandhi_80_45" depart="70.00" departLane="b1[0]_0" departPos="0.00" departSpeed="0.00" departDelay="0.00" arrival="114.00" arrivalLane="b21_0" arrivalPos="103.70" arrivalSpeed="14.58" duration="44.00" routeLength="515.76" waitingTime="0.00" waitingCount="0" stopTime="0.00" timeLoss="9.23" rerouteNo="0" devices="tripinfo_Gandhi_80_45" vType="passenger4" speedFactor="1.08" vaporized=""/>
    <tripinfo id="Prati_Capraia_100_10" depart="48.00" departLane="b3[0]_1" departPos="0.00" departSpeed="0.00" departDelay="0.00" arrival="119.00" arrivalLane="b3[1]b_0" arrivalPos="241.22" arrivalSpeed="12.71" duration="71.00" routeLength="624.73" waitingTime="3.00" waitingCount="1" stopTime="0.00" timeLoss="25.58" rerouteNo="0" devices="tripinfo_Prati_Capraia_100_10" vType="passenger1" speedFactor="1.00" vaporized=""/>
    <tripinfo id="Pertini_20_21" depart="45.00" departLane="b63[0]_1" departPos="0.00" departSpeed="0.00" departDelay="0.00" arrival="120.00" arrivalLane="b4[1][1][1]_0" arrivalPos="172.70" arrivalSpeed="11.80" duration="75.00" routeLength="889.67" waitingTime="0.00" waitingCount="0" stopTime="0.00" timeLoss="6.66" rerouteNo="0" devices="tripinfo_Pertini_20_21" vType="passenger3" speedFactor="0.94" vaporized=""/>
    <tripinfo id="Prati_Capraia_100_8" depart="38.00" departLane="b3[0]_1" departPos="0.00" departSpeed="0.00" departDelay="0.00" arrival="121.00" arrivalLane="b3[1]b_1" arrivalPos="241.22" arrivalSpeed="15.60" duration="83.00" routeLength="624.73" waitingTime="19.00" waitingCount="3" stopTime="0.00" timeLoss="44.24" rerouteNo="0" devices="tripinfo_Prati_Capraia_100_8" vType="passenger4" speedFactor="1.18" vaporized=""/>
    <tripinfo id="Pertini_20_25" depart="53.00" departLane="b63[0]_1" departPos="0.00" departSpeed="0.00" departDelay="0.00" arrival="122.00" arrivalLane="b4[1][1][1]_0" arrivalPos="172.70" arrivalSpeed="15.33" duration="69.00" routeLength="889.67" waitingTime="0.00" waitingCount="0" stopTime="0.00" timeLoss="13.99" rerouteNo="0" devices="tripinfo_Pertini_20_25" vType="passenger1" speedFactor="1.17" vaporized=""/>
    <tripinfo id="Audinot_7_0" depart="0.00" departLane="a131_0" departPos="0.00" departSpeed="0.00" departDelay="0.00" arrival="123.00" arrivalLane="a209_0" arrivalPos="395.74" arrivalSpeed="12.65" duration="123.00" routeLength="875.18" waitingTime="44.00" waitingCount="1" stopTime="0.00" timeLoss="58.39" rerouteNo="0" devices="tripinfo_Audinot_7_0" vType="passenger4" speedFactor="0.98" vaporized=""/>
    <tripinfo id="Costa_3_21" depart="54.00" departLane="a78[0]_0" departPos="0.00" departSpeed="0.00" departDelay="0.00" arrival="126.00" arrivalLane="a14_0" arrivalPos="90.27" arrivalSpeed="13.77" duration="72.00" routeLength="854.03" waitingTime="0.00" waitingCount="0" stopTime="0.00" timeLoss="11.31" rerouteNo="0" devices="tripinfo_Costa_3_21" vType="passenger4" speedFactor="1.01" vaporized=""/>
    <tripinfo id="Prati_Capraia_100_14" depart="68.00" departLane="b3[0]_1" departPos="0.00" departSpeed="0.00" departDelay="0.00" arrival="126.00" arrivalLane="b3[1]b_0" arrivalPos="241.22" arrivalSpeed="10.88" duration="58.00" routeLength="624.73" waitingTime="0.00" waitingCount="0" stopTime="0.00" timeLoss="5.78" rerouteNo="0" devices="tripinfo_Prati_Capraia_100_14" vType="passenger1" speedFactor="0.87" vaporized=""/>
    <tripinfo id="Prati_Capraia_10_19" depart="92.00" departLane="b3[0]_0" departPos="0.00" departSpeed="0.00" departDelay="0.00" arrival="126.00" arrivalLane="b10_0" arrivalPos="226.64" arrivalSpeed="13.31" duration="34.00" routeLength="410.85" waitingTime="0.00" waitingCount="0" stopTime="0.00" timeLoss="4.29" rerouteNo="0" devices="tripinfo_Prati_Capraia_10_19" vType="passenger3" speedFactor="1.01" vaporized=""/>
    <tripinfo id="Prati_Capraia_100_16" depart="77.00" departLane="b3[0]_0" departPos="0.00" departSpeed="0.00" departDelay="0.00" arrival="127.00" arrivalLane="b3[1]b_1" arrivalPos="241.22" arrivalSpeed="14.41" duration="50.00" routeLength="624.73" waitingTime="0.00" waitingCount="0" stopTime="0.00" timeLoss="5.98" rerouteNo="0" devices="tripinfo_Prati_Capraia_100_16" vType="passenger2b" speedFactor="1.04" vaporized=""/>
    <tripinfo id="Pertini_20_19" depart="40.00" departLane="b63[0]_2" departPos="0.00" departSpeed="0.00" departDelay="0.00" arrival="128.00" arrivalLane="b4[1][1][1]_0" arrivalPos="172.70" arrivalSpeed="9.82" duration="88.00" routeLength="889.67" waitingTime="0.00" waitingCount="0" stopTime="0.00" timeLoss="8.36" rerouteNo="0" devices="tripinfo_Pertini_20_19" vType="passenger2b" speedFactor="0.80" vaporized=""/>
    <tripinfo id="Pertini_20_27" depart="58.00" departLane="b63[0]_1" departPos="0.00" departSpeed="0.00" departDelay="0.00" arrival="128.00" arrivalLane="b4[1][1][1]_1" arrivalPos="172.70" arrivalSpeed="15.91" duration="70.00" routeLength="889.67" waitingTime="0.00" waitingCount="0" stopTime="0.00" timeLoss="13.87" rerouteNo="0" devices="tripinfo_Pertini_20_27" vType="passenger3" speedFactor="1.15" vaporized=""/>
    <tripinfo id="Pertini_10_20" depart="43.00" departLane="b63[0]_2" departPos="0.00" departSpeed="0.00" departDelay="0.00" arrival="130.00" arrivalLane="b10_0" arrivalPos="226.64" arrivalSpeed="14.73" duration="87.00" routeLength="944.54" waitingTime="9.00" waitingCount="1" stopTime="0.00" timeLoss="24.25" rerouteNo="0" devices="tripinfo_Pertini_10_20" vType="passenger5" speedFactor="1.09" vaporized=""/>
    <tripinfo id="Pertini_20_28" depart="60.00" departLane="b63[0]_2" departPos="0.00" departSpeed="0.00" departDelay="0.00" arrival="131.00" arrivalLane="b4[1][1][1]_1" arrivalPos="172.70" arrivalSpeed="14.69" duration="71.00" routeLength="889.67" waitingTime="0.00" waitingCount="0" stopTime="0.00" timeLoss="13.41" rerouteNo="0" devices="tripinfo_Pertini_20_28" vType="passenger1" speedFactor="1.13" vaporized=""/>
    <tripinfo id="Pertini_20_26" depart="55.00" departLane="b63[0]_2" departPos="0.00" departSpeed="0.00" departDelay="0.00" arrival="132.00" arrivalLane="b4[1][1][1]_0" arrivalPos="172.70" arrivalSpeed="12.27" duration="77.00" routeLength="889.67" waitingTime="0.00" waitingCount="0" stopTime="0.00" timeLoss="6.66" rerouteNo="0" devices="tripinfo_Pertini_20_26" vType="passenger2a" speedFactor="0.92" vaporized=""/>
    <tripinfo id="Prati_Capraia_100_17" depart="82.00" departLane="b3[0]_1" departPos="0.00" departSpeed="0.00" departDelay="0.00" arrival="132.00" arrivalLane="b3[1]b_0" arrivalPos="241.22" arrivalSpeed="13.15" duration="50.00" routeLength="624.73" waitingTime="0.00" waitingCount="0" stopTime="0.00" timeLoss="4.96" rerouteNo="0" devices="tripinfo_Prati_Capraia_100_17" vType="passenger1" speedFactor="1.00" vaporized=""/>
    <tripinfo id="Pertini_20_30" depart="64.00" departLane="b63[0]_1" departPos="0.00" departSpeed="0.00" departDelay="0.00" arrival="133.00" arrivalLane="b4[1][1][1]_0" arrivalPos="172.70" arrivalSpeed="14.69" duration="69.00" routeLength="889.67" waitingTime="0.00" waitingCount="0" stopTime="0.00" timeLoss="8.37" rerouteNo="0" devices="tripinfo_Pertini_20_30" vType="passenger1" speedFactor="1.06" vaporized=""/>
    <tripinfo id="Pepoli_9_1" depart="1.00" departLane="a210_0" departPos="0.00" departSpeed="0.00" departDelay="0.00" arrival="138.00" arrivalLane="a54_0" arrivalPos="302.30" arrivalSpeed="12.28" duration="137.00" routeLength="1310.48" waitingTime="23.00" waitingCount="1" stopTime="0.00" timeLoss="35.96" rerouteNo="0" devices="tripinfo_Pepoli_9_1" vType="passenger2b" speedFactor="0.94" vaporized=""/>
    <tripinfo id="Prati_Capraia_100_18" depart="87.00" departLane="b3[0]_0" departPos="0.00" departSpeed="0.00" departDelay="0.00" arrival="140.00" arrivalLane="b3[1]b_0" arrivalPos="241.22" arrivalSpeed="12.36" duration="53.00" routeLength="624.73" waitingTime="0.00" waitingCount="0" stopTime="0.00" timeLoss="5.23" rerouteNo="0" devices="tripinfo_Prati_Capraia_100_18" vType="passenger3" speedFactor="0.95" vaporized=""/>
    <tripinfo id="Malvasia_30_15" depart="72.00" departLane="b52_0" departPos="0.00" departSpeed="0.00" departDelay="0.00" arrival="141.00" arrivalLane="b70_0" arrivalPos="61.95" arrivalSpeed="15.75" duration="69.00" routeLength="961.32" waitingTime="0.00" waitingCount="0" stopTime="0.00" timeLoss="10.41" rerouteNo="0" devices="tripinfo_Malvasia_30_15" vType="passenger1" speedFactor="1.19" vaporized=""/>
    <tripinfo id="Borgo_20_3" depart="18.00" departLane="b6_1" departPos="0.00" departSpeed="0.00" departDelay="0.00" arrival="148.00" arrivalLane="b4[1][1][1]_1" arrivalPos="172.70" arrivalSpeed="12.23" duration="130.00" routeLength="552.91" waitingTime="74.00" waitingCount="1" stopTime="0.00" timeLoss="85.81" rerouteNo="0" devices="tripinfo_Borgo_20_3" vType="passenger2a" speedFactor="0.92" vaporized=""/>
    <tripinfo id="Turati_3_2" depart="69.00" departLane="a195_0" departPos="0.00" departSpeed="0.00" departDelay="0.00" arrival="148.00" arrivalLane="a14_0" arrivalPos="90.27" arrivalSpeed="13.21" duration="79.00" routeLength="953.01" waitingTime="0.00" waitingCount="0" stopTime="0.00" timeLoss="9.58" rerouteNo="0" devices="tripinfo_Turati_3_2" vType="ignoring1" speedFactor="1.00" vaporized=""/>
    <tripinfo id="Borgo_20_4" depart="24.00" departLane="b6_1" departPos="0.00" departSpeed="0.00" departDelay="0.00" arrival="149.00" arrivalLane="b4[1][1][1]_1" arrivalPos="172.70" arrivalSpeed="11.96" duration="125.00" routeLength="552.91" waitingTime="70.00" waitingCount="1" stopTime="0.00" timeLoss="83.66" rerouteNo="0" devices="tripinfo_Borgo_20_4" vType="passenger2a" speedFactor="0.97" vaporized=""/>
    <tripinfo id="Pepoli_10_4" depart="6.00" departLane="a210_0" departPos="0.00" departSpeed="0.00" departDelay="0.00" arrival="150.00" arrivalLane="a204[1][1]_0" arrivalPos="436.47" arrivalSpeed="13.09" duration="144.00" routeLength="1470.66" waitingTime="20.00" waitingCount="1" stopTime="0.00" timeLoss="37.46" rerouteNo="0" devices="tripinfo_Pepoli_10_4" vType="passenger2a" speedFactor="0.99" vaporized=""/>
    <tripinfo id="Pepoli_10_10" depart="17.00" departLane="a210_0" departPos="0.00" departSpeed="0.00" departDelay="0.00" arrival="150.00" arrivalLane="a204[1][1]_2" arrivalPos="436.47" arrivalSpeed="13.66" duration="133.00" routeLength="1470.66" waitingTime="10.00" waitingCount="1" stopTime="0.00" timeLoss="31.96" rerouteNo="0" devices="tripinfo_Pepoli_10_10" vType="passenger1" speedFactor="1.06" vaporized=""/>
    <tripinfo id="Borgo_20_6" depart="36.00" departLane="b6_1" departPos="0.00" departSpeed="0.00" departDelay="0.00" arrival="151.00" arrivalLane="b4[1][1][1]_1" arrivalPos="172.70" arrivalSpeed="13.40" duration="115.00" routeLength="552.91" waitingTime="63.00" waitingCount="1" stopTime="0.00" timeLoss="75.08" rerouteNo="0" devices="tripinfo_Borgo_20_6" vType="passenger3" speedFactor="1.01" vaporized=""/>
    <tripinfo id="Pepoli_8_25" depart="42.00" departLane="a210_0" departPos="0.00" departSpeed="0.00" departDelay="0.00" arrival="151.00" arrivalLane="a134b_0" arrivalPos="158.70" arrivalSpeed="13.46" duration="109.00" routeLength="693.78" waitingTime="45.00" waitingCount="1" stopTime="0.00" timeLoss="57.62" rerouteNo="0" devices="tripinfo_Pepoli_8_25" vType="passenger2b" speedFactor="0.98" vaporized=""/>
    <tripinfo id="Borgo_20_7" depart="42.00" departLane="b6_1" departPos="0.00" departSpeed="0.00" departDelay="0.00" arrival="152.00" arrivalLane="b4[1][1][1]_1" arrivalPos="172.70" arrivalSpeed="14.35" duration="110.00" routeLength="552.91" waitingTime="59.00" waitingCount="1" stopTime="0.00" timeLoss="74.53" rerouteNo="0" devices="tripinfo_Borgo_20_7" vType="passenger2a" speedFactor="1.13" vaporized=""/>
    <tripinfo id="Pepoli_3_0" depart="0.00" departLane="a210_2" departPos="0.00" departSpeed="0.00" departDelay="0.00" arrival="153.00" arrivalLane="a14_0" arrivalPos="90.27" arrivalSpeed="12.63" duration="153.00" routeLength="1950.08" waitingTime="0.00" waitingCount="0" stopTime="0.00" timeLoss="12.56" rerouteNo="0" devices="tripinfo_Pepoli_3_0" vType="ignoring1" speedFactor="1.00" vaporized=""/>
    <tripinfo id="Pepoli_8_28" depart="48.00" departLane="a210_0" departPos="0.00" departSpeed="0.00" departDelay="0.00" arrival="156.00" arrivalLane="a134b_0" arrivalPos="158.70" arrivalSpeed="12.07" duration="108.00" routeLength="693.78" waitingTime="41.00" waitingCount="1" stopTime="0.00" timeLoss="52.54" rerouteNo="0" devices="tripinfo_Pepoli_8_28" vType="passenger1" speedFactor="0.90" vaporized=""/>
    <tripinfo id="Borgo_100_0" depart="0.00" departLane="b6_0" departPos="0.00" departSpeed="0.00" departDelay="0.00" arrival="157.00" arrivalLane="b3[1]b_0" arrivalPos="241.22" arrivalSpeed="15.02" duration="157.00" routeLength="798.33" waitingTime="93.00" waitingCount="1" stopTime="0.00" timeLoss="103.37" rerouteNo="0" devices="tripinfo_Borgo_100_0" vType="passenger1" speedFactor="1.08" vaporized=""/>
    <tripinfo id="Pepoli_3_2" depart="3.00" departLane="a210_2" departPos="0.00" departSpeed="0.00" departDelay="0.00" arrival="158.00" arrivalLane="a14_0" arrivalPos="90.27" arrivalSpeed="13.25" duration="155.00" routeLength="1950.08" waitingTime="0.00" waitingCount="0" stopTime="0.00" timeLoss="13.66" rerouteNo="0" devices="tripinfo_Pepoli_3_2" vType="ignoring1" speedFactor="1.00" vaporized=""/>
    <tripinfo id="Borgo_20_9" depart="54.00" departLane="b6_1" departPos="0.00" departSpeed="0.00" departDelay="0.00" arrival="158.00" arrivalLane="b4[1][1][1]_1" arrivalPos="172.70" arrivalSpeed="12.88" duration="104.00" routeLength="552.91" waitingTime="49.00" waitingCount="1" stopTime="0.00" timeLoss="62.02" rerouteNo="0" devices="tripinfo_Borgo_20_9" vType="passenger1" speedFactor="0.97" vaporized=""/>
    <tripinfo id="Borgo_100_2" depart="12.00" departLane="b6_0" departPos="0.00" departSpeed="0.00" departDelay="0.00" arrival="159.00" arrivalLane="b3[1]b_0" arrivalPos="241.22" arrivalSpeed="14.26" duration="147.00" routeLength="798.33" waitingTime="82.00" waitingCount="1" stopTime="0.00" timeLoss="93.87" rerouteNo="0" devices="tripinfo_Borgo_100_2" vType="passenger5" speedFactor="1.10" vaporized=""/>
    <tripinfo id="Borgo_20_13" depart="79.00" departLane="b6_1" departPos="0.00" departSpeed="0.00" departDelay="0.00" arrival="159.00" arrivalLane="b4[1][1][1]_1" arrivalPos="172.70" arrivalSpeed="14.34" duration="80.00" routeLength="552.91" waitingTime="31.00" waitingCount="1" stopTime="0.00" timeLoss="44.47" rerouteNo="0" devices="tripinfo_Borgo_20_13" vType="passenger2b" speedFactor="1.13" vaporized=""/>
    <tripinfo id="Pepoli_10_11" depart="20.00" departLane="a210_0" departPos="0.00" departSpeed="0.00" departDelay="2.00" arrival="160.00" arrivalLane="a204[1][1]_0" arrivalPos="436.47" arrivalSpeed="12.31" duration="140.00" routeLength="1470.66" waitingTime="5.00" waitingCount="1" stopTime="0.00" timeLoss="21.35" rerouteNo="0" devices="tripinfo_Pepoli_10_11" vType="passenger2b" speedFactor="0.90" vaporized=""/>
    <tripinfo id="Pepoli_10_18" depart="30.00" departLane="a210_0" departPos="0.00" departSpeed="0.00" departDelay="0.00" arrival="160.00" arrivalLane="a204[1][1]_1" arrivalPos="436.47" arrivalSpeed="12.69" duration="130.00" routeLength="1470.66" waitingTime="0.00" waitingCount="0" stopTime="0.00" timeLoss="14.81" rerouteNo="0" devices="tripinfo_Pepoli_10_18" vType="passenger4" speedFactor="0.92" vaporized=""/>
    <tripinfo id="Pepoli_10_22" depart="37.00" departLane="a210_1" departPos="0.00" departSpeed="0.00" departDelay="0.00" arrival="160.00" arrivalLane="a204[1][1]_2" arrivalPos="436.47" arrivalSpeed="13.27" duration="123.00" routeLength="1470.66" waitingTime="0.00" waitingCount="0" stopTime="0.00" timeLoss="17.48" rerouteNo="0" devices="tripinfo_Pepoli_10_22" vType="passenger1" speedFactor="1.00" vaporized=""/>
    <tripinfo id="Pepoli_10_19" depart="32.00" departLane="a210_1" departPos="0.00" departSpeed="0.00" departDelay="0.00" arrival="161.00" arrivalLane="a204[1][1]_1" arrivalPos="436.47" arrivalSpeed="13.47" duration="129.00" routeLength="1470.66" waitingTime="0.00" waitingCount="0" stopTime="0.00" timeLoss="23.39" rerouteNo="0" devices="tripinfo_Pepoli_10_19" vType="passenger1" speedFactor="1.00" vaporized=""/>