<?xml version="1.0" encoding="UTF-8"?>

<!-- generated on 2026-03-15T22:16:18.204368+05:30 by Eclipse SUMO GUI 1.26.0
<sumoConfiguration xmlns:xsi="http://www.w3.org/2001/XMLSchema-instance" xsi:noNamespaceSchemaLocation="http://sumo.dlr.de/xsd/sumoConfiguration.xsd">

    <input>
        <net-file value="joined_buslanes.net.xml"/>
        <route-files value="joined.rou.xml, joined_busses.rou.xml"/>
        <additional-files value="joined_bus_stops.add.xml, joined_detectors.add.xml, joined_vtypes.add.xml, joined_tls.add.xml"/>
    </input>

    <output>
        <tripinfo-output value="tripinfos.xml"/>
        <save-state.prefix value="state"/>
    </output>

    <report>
        <log value="sumo_log.txt"/>
        <no-step-log value="true"/>
    </report>

    <emissions>
        <phemlight-path value="./PHEMlight/"/>
    </emissions>

</sumoConfiguration>
-->

<tripinfos xmlns:xsi="http://www.w3.org/2001/XMLSchema-instance" xsi:noNamespaceSchemaLocation="http://sumo.dlr.de/xsd/tripinfo_file.xsd">
</tripinfos>
